# vtk DataFile Version 3.0
Particle file created by Palabos
ASCII
DATASET UNSTRUCTURED_GRID
POINTS        18628 double
 3.3278605133e+00  3.2794051808e+01  3.7454406691e+01
 3.4139034663e+00  3.3444690931e+01  3.7141503438e+01
 3.3796039059e+00  3.2730367507e+01  3.9454210664e+01
 3.2650503007e+00  3.3948647234e+01  3.5708912692e+01
 3.2492965680e+00  3.5062636058e+01  3.3328419226e+01
 2.8745226889e+00  3.5193940466e+01  4.5973778061e+01
 3.2372927189e+00  3.5667673890e+01  3.5319661995e+01
 2.8113356027e+00  3.6388856398e+01  3.8627922652e+01
 2.6976862640e+00  3.5838442128e+01  4.0073953457e+01
 3.4489679654e+00  3.7438556549e+01  4.0120935655e+01
 2.9311380232e+00  3.8365532286e+01  3.1625097300e+01
 3.3062946551e+00  3.8397279525e+01  4.5726549971e+01
 3.0829685375e+00  3.8158303729e+01  4.6929947109e+01
 2.7171079914e+00  3.9148305339e+01  3.4408361641e+01
 2.9734099379e+00  3.9384624838e+01  3.9009692352e+01
 3.1623369503e+00  3.8976608920e+01  4.4179388213e+01
 2.9916216948e+00  4.0307696600e+01  3.2932737160e+01
 3.3303543515e+00  3.9746787917e+01  3.3352553303e+01
 3.4023843458e+00  4.0418285102e+01  3.9948496960e+01
 3.2903986660e+00  3.9915412744e+01  4.0067669653e+01
 3.0855650843e+00  4.0328668504e+01  4.2310385596e+01
 2.9119382163e+00  4.0972337106e+01  4.6223394026e+01
 2.8147910126e+00  4.1533555028e+01  3.4170129219e+01
 3.0489182212e+00  4.1523866591e+01  4.2036788051e+01
 2.8379046216e+00  4.2339709945e+01  4.2117122281e+01
 3.4035966304e+00  4.2080047822e+01  4.5146446812e+01
 3.1142155932e+00  4.1897304272e+01  4.9476494797e+01
 3.0791194552e+00  4.1995244127e+01  5.0826877406e+01
 3.4050600182e+00  4.2913524482e+01  3.7538021835e+01
 2.9757083314e+00  4.3275417016e+01  4.5330539854e+01
 2.9323084880e+00  4.2756132374e+01  4.6368312108e+01
 3.1002508817e+00  4.3077685103e+01  4.7470680919e+01
 3.1274951151e+00  4.3704318708e+01  3.5399681917e+01
 3.3318467258e+00  4.4339900878e+01  3.7190213250e+01
 2.9835938684e+00  4.4174036549e+01  4.2026812477e+01
 2.8602508686e+00  4.3565032284e+01  4.6672574193e+01
 3.1971101555e+00  4.3783088150e+01  5.0569010015e+01
 3.2388748463e+00  4.4896616881e+01  3.9517127764e+01
 3.1346976830e+00  4.4811165075e+01  4.0298422417e+01
 3.2078241142e+00  4.5150147550e+01  4.4768374794e+01
 2.9166098808e+00  4.6283886538e+01  4.4107182078e+01
 3.2102093158e+00  4.6357192693e+01  4.7017910093e+01
 3.1515249747e+00  4.6151218809e+01  4.9262328522e+01
 3.0723543044e+00  4.7017607130e+01  3.6163835579e+01
 3.2594022455e+00  4.6972471715e+01  4.0235097537e+01
 3.3429633580e+00  4.8401722416e+01  3.5894131380e+01
 2.6422814742e+00  4.7514146603e+01  3.6444083204e+01
 3.1095354853e+00  4.8342307563e+01  4.0074207594e+01
 3.0494496105e+00  4.7990342441e+01  4.3574825296e+01
 3.1178281493e+00  4.8421206805e+01  4.5824550825e+01
 2.9824042804e+00  5.0398638015e+01  4.1880414398e+01
 3.7704687239e+00  3.1151328400e+01  4.0598181679e+01
 4.4021937983e+00  3.1172259070e+01  4.2796151192e+01
 4.2669628877e+00  3.2370076690e+01  3.8936895051e+01
 3.5342931186e+00  3.2238195177e+01  3.8876603666e+01
 4.1641975219e+00  3.2474056116e+01  4.0644077449e+01
 4.3712216703e+00  3.2067998914e+01  4.4060793752e+01
 3.7687410134e+00  3.2659409784e+01  3.5531966738e+01
 3.9654391943e+00  3.3133193283e+01  4.0574948249e+01
 3.5623995215e+00  3.3128256789e+01  4.2230118565e+01
 4.4062242729e+00  3.2620971323e+01  4.5381667515e+01
 3.9686813764e+00  3.3142661746e+01  4.6438335291e+01
 4.4358007786e+00  3.2868020069e+01  4.6671627611e+01
 4.4931592363e+00  3.4319072617e+01  3.3836133217e+01
 4.1389923093e+00  3.3730257811e+01  3.6029820631e+01
 4.4942535580e+00  3.3885761503e+01  3.5627214292e+01
 3.6970467616e+00  3.3564033521e+01  3.7465530348e+01
 4.0180578577e+00  3.3826230612e+01  3.7698047029e+01
 4.4767724645e+00  3.3531826518e+01  3.9437921080e+01
 4.1142236077e+00  3.3658479222e+01  4.3269574827e+01
 4.0742054466e+00  3.3843378876e+01  4.3956859191e+01
 4.1264853251e+00  3.4106685428e+01  4.5574687415e+01
 4.2606344860e+00  3.4748067660e+01  3.4116190748e+01
 3.8868469805e+00  3.5328874316e+01  3.7782437769e+01
 4.0591898931e+00  3.4652119503e+01  4.0686250098e+01
 3.6884140180e+00  3.5471832101e+01  4.5025094333e+01
 3.6474753462e+00  3.4563223132e+01  4.5507640299e+01
 3.6450126495e+00  3.5389248572e+01  4.6342010695e+01
 4.1424051040e+00  3.6074034898e+01  3.4546759399e+01
 3.8956165538e+00  3.6359418200e+01  3.5168584766e+01
 3.7826155438e+00  3.5553610823e+01  3.8172030218e+01
 4.2878372084e+00  3.6400862290e+01  3.8913370528e+01
 4.4996733184e+00  3.6124306200e+01  3.9518865223e+01
 4.1557947655e+00  3.5629937701e+01  3.9796128664e+01
 4.1903995301e+00  3.5715868548e+01  4.8262253031e+01
 4.3939533893e+00  3.6909458974e+01  3.2771063297e+01
 3.5935699588e+00  3.7437880437e+01  3.5007456253e+01
 3.9693685399e+00  3.7125662829e+01  3.5670563372e+01
 4.4856520707e+00  3.6830151146e+01  3.7122071369e+01
 4.0936425533e+00  3.6928968537e+01  3.9153126293e+01
 3.9613249262e+00  3.7145546406e+01  4.2089988194e+01
 4.3015393105e+00  3.6586351497e+01  4.3621125380e+01
 4.2253047354e+00  3.7184132728e+01  4.4707727734e+01
 4.3379903691e+00  3.7147237303e+01  4.7703955546e+01
 4.1692537057e+00  3.7959160070e+01  3.6183430998e+01
 4.4170093930e+00  3.8485144151e+01  4.0572824368e+01
 4.1334309171e+00  3.8410223095e+01  4.1840459771e+01
 4.3682769841e+00  3.8284026893e+01  4.3692395557e+01
 4.2438122336e+00  3.8292286549e+01  4.9516911764e+01
 3.9200727185e+00  3.7815547413e+01  5.0447174325e+01
 4.4133886659e+00  3.9490701935e+01  3.2474438243e+01
 4.1694647196e+00  3.9288255616e+01  3.8633823199e+01
 3.5657747584e+00  3.8505978818e+01  4.0048276022e+01
 4.4559586580e+00  3.8553825825e+01  4.5583405607e+01
 4.2752233891e+00  3.9011846033e+01  4.8228504964e+01
 4.0029735790e+00  3.9219270600e+01  4.7825443493e+01
 3.9799376978e+00  3.9129146346e+01  4.7637197441e+01
 4.2873724127e+00  3.9234136098e+01  4.8054596483e+01
 4.3643504310e+00  3.8579079773e+01  4.8171305850e+01
 4.1171657651e+00  3.8741155027e+01  4.8618525372e+01
 4.1900380198e+00  3.9474470726e+01  5.0785511522e+01
 4.0012741761e+00  3.8866330984e+01  5.0560290635e+01
 3.5889512089e+00  3.9992212706e+01  3.1749314652e+01
 3.8431062427e+00  4.0246166248e+01  3.5281182087e+01
 4.1935382676e+00  4.0242775611e+01  3.7225715988e+01
 4.3868739456e+00  3.9628452792e+01  3.8276515601e+01
 4.1672918408e+00  3.9637302058e+01  4.0509350395e+01
 4.4376606435e+00  4.0164485982e+01  4.3781425158e+01
 4.4897452561e+00  3.9859265944e+01  4.5481276062e+01
 4.3795469648e+00  3.9777117248e+01  4.8171470089e+01
 4.3582646300e+00  3.9536879315e+01  4.8174119054e+01
 3.5477967119e+00  3.9786755775e+01  4.7853081959e+01
 3.5366412061e+00  4.0331515729e+01  4.7876428466e+01
 4.4159396987e+00  3.9724832647e+01  4.8559886096e+01
 3.8993590332e+00  3.9953909488e+01  4.9002290659e+01
 3.5147449469e+00  4.0524143724e+01  3.3863346256e+01
 3.6342750246e+00  4.0931651136e+01  3.9426891257e+01
 3.9410419079e+00  4.0978114532e+01  5.0644067260e+01
 4.3283079628e+00  4.2304752028e+01  3.1590062306e+01
 3.9721927703e+00  4.2138813516e+01  3.3023423564e+01
 3.8400520564e+00  4.1949564079e+01  3.2955516916e+01
 4.0512661041e+00  4.1990099511e+01  3.9179047673e+01
 3.5632716135e+00  4.2364022981e+01  3.8979801204e+01
 3.5863875344e+00  4.2247480313e+01  3.9575253639e+01
 3.7637244237e+00  4.2492356609e+01  4.3083405852e+01
 4.1278162322e+00  4.1751079447e+01  4.4876605050e+01
 4.1521284671e+00  4.2376747667e+01  4.6664775669e+01
 4.4399828285e+00  4.1632799272e+01  4.7694983820e+01
 4.1731137988e+00  4.3311334941e+01  3.1991874026e+01
 3.5475244491e+00  4.2623637227e+01  3.6266619730e+01
 3.6428086341e+00  4.2797180405e+01  3.8349686688e+01
 3.8753427714e+00  4.3428430867e+01  3.8541999178e+01
 4.1912986095e+00  4.3110188449e+01  4.1518489149e+01
 3.5834665049e+00  4.2848620031e+01  4.2097088464e+01
 4.2797233030e+00  4.3340825663e+01  4.4048533171e+01
 4.2228955351e+00  4.3351855009e+01  4.7007907168e+01
 3.9637183974e+00  4.4401189516e+01  3.2206244231e+01
 4.2094935741e+00  4.3571874227e+01  3.1705704104e+01
 4.1435939472e+00  4.4251919104e+01  3.3586156355e+01
 3.5840829223e+00  4.4088667153e+01  3.4976891747e+01
 3.8564403207e+00  4.4456340911e+01  3.6038830496e+01
 3.7242396084e+00  4.3535417973e+01  4.2278298495e+01
 3.8333751594e+00  4.4077845890e+01  4.3881859068e+01
 3.5502734322e+00  4.3760676882e+01  4.3878169381e+01
 3.6158960467e+00  4.4299671741e+01  4.6319061882e+01
 4.3071300056e+00  4.4144033105e+01  4.7244706610e+01
 4.1049693473e+00  4.3962695063e+01  4.7064500542e+01
 4.4012346080e+00  4.3575977499e+01  4.8201267545e+01
 3.8962698209e+00  4.3937623974e+01  4.9367085975e+01
 3.5433301760e+00  4.3776463655e+01  4.9781864476e+01
 3.6412276363e+00  4.5326862924e+01  3.3472176320e+01
 4.3146261576e+00  4.4694048182e+01  3.4397111145e+01
 4.4056448716e+00  4.4704381828e+01  3.6440901472e+01
 4.1665530357e+00  4.5318308967e+01  3.6639948923e+01
 3.8357662941e+00  4.4977869373e+01  3.9090870596e+01
 3.7229312377e+00  4.4754989467e+01  4.2934707910e+01
 4.1081316803e+00  4.4840277816e+01  4.3842303329e+01
 4.1134861956e+00  4.4634625491e+01  4.3836060576e+01
 3.5944131460e+00  4.5177377049e+01  4.6662258444e+01
 4.4775283666e+00  4.5080125124e+01  4.9907132247e+01
 4.1777584843e+00  4.5022954821e+01  4.9902565449e+01
 3.6841021593e+00  4.5775818735e+01  3.2569023283e+01
 4.3472432494e+00  4.5670605100e+01  3.7227569435e+01
 4.4303626858e+00  4.5672285234e+01  3.6902790420e+01
 3.6423964860e+00  4.6274572461e+01  4.2729734194e+01
 4.4876152959e+00  4.5847541847e+01  4.7799639804e+01
 4.4593959175e+00  4.7034229564e+01  3.4325718244e+01
 3.9063792005e+00  4.6628931805e+01  3.4252864811e+01
 4.1795766332e+00  4.6847581022e+01  3.6613542490e+01
 3.7618190262e+00  4.7144491994e+01  3.8733967367e+01
 4.3288174181e+00  4.6894758772e+01  4.2589676506e+01
 4.3026982779e+00  4.6910529811e+01  4.4298180731e+01
[...]
POINT_DATA        18628
VECTORS Velocity double
 7.1228474339e-03 -3.6251599105e-07 -1.6568734066e-07
 7.1602518834e-03 -3.3447141161e-07 -1.7874680369e-07
 7.1654933720e-03 -3.6252787637e-07 -7.2642402026e-08
 7.1338547480e-03 -3.1887750433e-07 -2.4441376502e-07
 7.0569298516e-03 -2.7336668742e-07 -3.4496014944e-07
 7.2245248745e-03 -2.7404313056e-07  2.3654405116e-07
 7.2127519448e-03 -2.4601372036e-07 -2.6118450273e-07
 7.3710917940e-03 -2.2109729703e-07 -1.1508966872e-07
 7.3694920816e-03 -2.4901729296e-07 -4.5504453166e-08
 7.4345795081e-03 -1.6296274737e-07 -4.0761523565e-08
 7.0526729895e-03 -1.2654130038e-07 -4.2068607305e-07
 7.3607964629e-03 -1.2143076102e-07  2.1738979651e-07
 7.2957248244e-03 -1.3480265396e-07  2.7487579847e-07
 7.2778909926e-03 -9.0444897883e-08 -3.1311506394e-07
 7.4673724028e-03 -7.7486121869e-08 -9.5532231160e-08
 7.4319506831e-03 -9.5578597409e-08  1.4947623373e-07
 7.1907491213e-03 -3.3209061428e-08 -3.6718191316e-07
 7.2158793863e-03 -5.8891087983e-08 -3.3972176402e-07
 7.4911672020e-03 -2.6896760186e-08 -4.8836572932e-08
 7.4890636304e-03 -5.0720294618e-08 -4.3720748934e-08
 7.4871210343e-03 -3.1898445890e-08  6.2403891216e-08
 7.3705041813e-03 -1.2318669313e-09  2.4719635016e-07
 7.2775325722e-03  2.6052116162e-08 -3.2089037578e-07
 7.4916608955e-03  2.5179992086e-08  4.9568044885e-08
 7.4835335496e-03  6.5261672738e-08  5.4349983778e-08
 7.4123229873e-03  5.0431807414e-08  1.8987714730e-07
 7.1571763241e-03  4.3012893825e-08  3.7920774375e-07
 7.0413698146e-03  4.7834623956e-08  4.3151522496e-07
 7.4244328869e-03  8.8988853353e-08 -1.5924606556e-07
 7.3851857182e-03  1.0917103358e-07  2.0519440946e-07
 7.3478421197e-03  8.4705818154e-08  2.5321396200e-07
 7.2813379296e-03  9.8993953277e-08  2.9757836798e-07
 7.3159372316e-03  1.2814369379e-07 -2.5933980482e-07
 7.3772220759e-03  1.5510404956e-07 -1.7614631396e-07
 7.4463662874e-03  1.5157061937e-07  4.9345977980e-08
 7.3154879324e-03  1.2396740776e-07  2.6850928639e-07
 7.0318944683e-03  1.3216936113e-07  4.1792422480e-07
 7.4162353373e-03  1.8148473137e-07 -6.9794770380e-08
 7.4272317668e-03  1.7907914025e-07 -3.3333968008e-08
 7.3505950319e-03  1.9360821330e-07  1.7608086002e-07
 7.3218148309e-03  2.4996268928e-07  1.4904523587e-07
 7.1938987861e-03  2.4795689283e-07  2.7644149894e-07
 7.0534730463e-03  2.4075130703e-07  3.7078066624e-07
 7.2192494780e-03  2.7941049020e-07 -2.2683823561e-07
 7.3284134292e-03  2.7276333143e-07 -3.6078023468e-08
 7.1187684651e-03  3.3131556541e-07 -2.3527467330e-07
 7.2008353579e-03  3.1133859662e-07 -2.2083083874e-07
 7.2412489437e-03  3.3412349750e-07 -4.4169658901e-08
 7.2380257299e-03  3.2142975308e-07  1.2266909269e-07
 7.1302661277e-03  3.3780125848e-07  2.2597583425e-07
 7.0800476830e-03  4.1965851877e-07  4.2392948434e-08
 7.0421865855e-03 -4.0482640015e-07 -1.8680710591e-08
 7.0300330265e-03 -3.8136025261e-07  8.1144974629e-08
 7.1288897485e-03 -3.4708355391e-07 -9.2452777457e-08
 7.1169936046e-03 -3.7606222657e-07 -9.8973968101e-08
 7.1557361061e-03 -3.4584700889e-07 -1.6074546679e-08
 7.0808675078e-03 -3.5546350988e-07  1.3627497680e-07
 7.0308816976e-03 -3.5638689865e-07 -2.4570904644e-07
 7.2066883940e-03 -3.2855021731e-07 -1.9297782605e-08
 7.2004261762e-03 -3.4144671084e-07  5.7163745166e-08
 7.0780121572e-03 -3.3793920535e-07  1.9187985596e-07
 7.0695731802e-03 -3.3280452501e-07  2.4067767809e-07
 7.0369861454e-03 -3.3174625544e-07  2.4446566627e-07
 7.0478650185e-03 -2.8075271551e-07 -2.9791570460e-07
 7.1347352190e-03 -3.0558974180e-07 -2.1779711617e-07
 7.1251795972e-03 -2.9260271814e-07 -2.2897695116e-07
 7.1792626143e-03 -3.2168459815e-07 -1.6104628422e-07
 7.2053127389e-03 -3.0274119766e-07 -1.4735722404e-07
 7.2240993685e-03 -3.0013941034e-07 -6.8498085099e-08
 7.2205400968e-03 -3.0565621905e-07  1.0134237459e-07
 7.2174342020e-03 -3.0035466419e-07  1.3181742825e-07
 7.1768826878e-03 -2.9102905050e-07  2.0059060204e-07
 7.0926105050e-03 -2.6739078986e-07 -2.9090279521e-07
 7.2981888204e-03 -2.4637229148e-07 -1.4383441878e-07
 7.3078802901e-03 -2.6838884209e-07 -1.4022580417e-08
 7.2788378163e-03 -2.4502001756e-07  1.8165117334e-07
 7.2075451799e-03 -2.8386074234e-07  2.0382329021e-07
 7.2158246686e-03 -2.5027837151e-07  2.3919213619e-07
 7.1888781623e-03 -2.1450647400e-07 -2.7403730233e-07
 7.2372324424e-03 -2.0527872776e-07 -2.5399146471e-07
 7.3209490349e-03 -2.3905484568e-07 -1.2756087156e-07
 7.3782267416e-03 -1.9468279384e-07 -9.0664222684e-08
 7.3758794374e-03 -2.0204029626e-07 -6.3551810541e-08
 7.3554674426e-03 -2.2783104834e-07 -5.3143834292e-08
 7.1193534905e-03 -2.2995972193e-07  3.0479585354e-07
 7.1022518717e-03 -1.7928040861e-07 -3.3254986514e-07
 7.2703248021e-03 -1.6240405065e-07 -2.6641458179e-07
 7.2942538704e-03 -1.7108454970e-07 -2.3122156316e-07
 7.3461205181e-03 -1.7545814643e-07 -1.6393268367e-07
 7.4046933821e-03 -1.7588444213e-07 -8.1296744020e-08
 7.4231121310e-03 -1.6846174089e-07  4.8526696610e-08
 7.3735249309e-03 -1.8718610419e-07  1.1335742624e-07
 7.3649190977e-03 -1.6421145660e-07  1.5983200750e-07
 7.2174859537e-03 -1.6729913435e-07  2.7800530334e-07
 7.3463147775e-03 -1.3268642348e-07 -2.0616019076e-07
 7.4664478792e-03 -1.0651827068e-07 -1.8289593137e-08
 7.4627654303e-03 -1.1231780948e-07  3.6815313132e-08
 7.4287652313e-03 -1.1588261295e-07  1.1503555637e-07
 7.1227886944e-03 -1.2085814181e-07  3.4469187745e-07
 7.0315843391e-03 -1.4541204698e-07  3.8752265579e-07
 7.1455790855e-03 -6.7003801288e-08 -3.3862281504e-07
 7.4572486921e-03 -7.4402969410e-08 -1.0265179132e-07
 7.4645117252e-03 -1.1359566789e-07 -4.3670418741e-08
 7.3704587848e-03 -1.0459402006e-07  1.9164802238e-07
 7.2349643552e-03 -8.7846848014e-08  2.9717073869e-07
 7.2645901382e-03 -7.9789374881e-08  2.8877569940e-07
 7.2747936162e-03 -8.3864962271e-08  2.8204227919e-07
 7.2503159147e-03 -7.7854507009e-08  2.9043447685e-07
 7.2289521345e-03 -1.0612087186e-07  2.9321506556e-07
 7.2013169882e-03 -1.0092228833e-07  3.1586689151e-07
 7.0376047598e-03 -6.9383405741e-08  3.8739602927e-07
 7.0478623791e-03 -9.7540239271e-08  3.8713906614e-07
 7.0925317587e-03 -4.6999921955e-08 -3.9133168036e-07
 7.3415190369e-03 -3.3963600612e-08 -2.4844347123e-07
 7.4281370205e-03 -3.2958161862e-08 -1.6192044904e-07
 7.4536509192e-03 -5.8638891557e-08 -1.1581070521e-07
 7.4871857948e-03 -5.9108541554e-08 -2.1388938318e-08
 7.4582863990e-03 -3.5556727499e-08  1.1765885301e-07
 7.3973033311e-03 -4.8757333627e-08  1.8644041135e-07
 7.2497310546e-03 -5.3670844763e-08  2.9198482546e-07
 7.2461675818e-03 -6.4296223820e-08  2.9276884102e-07
 7.2709033291e-03 -5.6079186645e-08  3.0182945748e-07
 7.2740334744e-03 -3.0886091182e-08  3.0300084459e-07
 7.2216877870e-03 -5.6052349845e-08  3.0494019515e-07
 7.1938015265e-03 -4.7580922107e-08  3.3586357319e-07
 7.2578005004e-03 -2.2001062213e-08 -3.1400045802e-07
 7.4862288292e-03 -2.9632157742e-09 -7.1528497027e-08
 7.0621818136e-03 -8.6529271152e-10  3.9119409031e-07
 7.0741504165e-03  5.9078296678e-08 -3.7029154815e-07
 7.1943242961e-03  5.1856307957e-08 -3.3263130872e-07
 7.1913264205e-03  4.3649837635e-08 -3.3922054435e-07
 7.4784057803e-03  4.3795169129e-08 -7.9881305831e-08
 7.4702710181e-03  6.2659562312e-08 -9.2369482821e-08
 7.4804706365e-03  5.7209313836e-08 -6.5092568811e-08
 7.4669765172e-03  6.7400712110e-08  9.3630085802e-08
 7.4248111750e-03  3.3225349616e-08  1.6712255019e-07
 7.3378425457e-03  6.1042189154e-08  2.3980508532e-07
 7.2852234247e-03  2.7857867519e-08  2.7270895459e-07
 7.0928649324e-03  1.0447953424e-07 -3.6342601226e-07
 7.3799150418e-03  7.4892195101e-08 -2.1316399855e-07
 7.4494103571e-03  8.1952898748e-08 -1.2002992204e-07
 7.4410151074e-03  1.0826256729e-07 -1.0932928529e-07
 7.4755112937e-03  9.1647262879e-08  2.2583846147e-08
 7.4766253657e-03  8.4588732646e-08  5.0213679447e-08
 7.4287589310e-03  1.0122652635e-07  1.3084074331e-07
 7.3030665788e-03  1.0351759743e-07  2.5246418944e-07
 7.0807267407e-03  1.5418350167e-07 -3.6382787537e-07
 7.0612743771e-03  1.1628936258e-07 -3.7185315876e-07
 7.1900721927e-03  1.4455983958e-07 -3.0850055037e-07
 7.2840661825e-03  1.4163509461e-07 -2.6761927885e-07
 7.3265947957e-03  1.5439066636e-07 -2.1788729497e-07
 7.4593952931e-03  1.1426259183e-07  5.7825022396e-08
 7.4151353539e-03  1.3737272024e-07  1.2857671241e-07
 7.4233964157e-03  1.2630074763e-07  1.3138918378e-07
 7.3136569777e-03  1.5042300613e-07  2.3736336198e-07
 7.2687211532e-03  1.3729704388e-07  2.6032195738e-07
 7.2853074470e-03  1.3113326745e-07  2.5753234362e-07
 7.2232108392e-03  1.1299464053e-07  2.9347388788e-07
 7.1293496337e-03  1.3364337592e-07  3.5019466232e-07
 7.1000903316e-03  1.2917775895e-07  3.7691200923e-07
 7.1437451982e-03  1.9712276192e-07 -3.2748720149e-07
 7.2288518311e-03  1.6103826369e-07 -2.7443700475e-07
 7.3353976618e-03  1.5833796827e-07 -1.9233124016e-07
 7.3206762804e-03  1.8683195041e-07 -1.8821635310e-07
 7.4075505910e-03  1.7619204024e-07 -8.5702149200e-08
 7.4145081140e-03  1.6813233499e-07  8.7592917035e-08
 7.3910372484e-03  1.6670377200e-07  1.2431373329e-07
 7.3979304823e-03  1.5790156103e-07  1.2391364664e-07
 7.2655045638e-03  1.8985495246e-07  2.5271514467e-07
 7.0486519829e-03  1.7982192202e-07  3.5328333885e-07
 7.0514360943e-03  1.8001622559e-07  3.6200152870e-07
 7.0572697044e-03  2.1733446152e-07 -3.6120413730e-07
 7.3284634965e-03  1.9817121323e-07 -1.6166940248e-07
 7.3168231546e-03  1.9724551817e-07 -1.7411152326e-07
 7.3530165128e-03  2.3474853474e-07  7.9112707003e-08
 7.1710694147e-03  2.0741464662e-07  2.7986557057e-07
 7.1186356475e-03  2.5541212078e-07 -2.7816691507e-07
 7.1354305464e-03  2.4815690684e-07 -2.9171877874e-07
 7.2471087340e-03  2.4913151523e-07 -1.9061853518e-07
 7.2967725947e-03  2.6840610062e-07 -1.0284534045e-07
 7.3229856447e-03  2.4573012473e-07  6.9439732653e-08
 7.2831865803e-03  2.4808650902e-07  1.4327092892e-07
 7.2348969370e-03  2.6736218233e-07  1.9569164873e-07
 7.1567811367e-03  2.6316989706e-07  2.6363187677e-07
 7.1441120813e-03  2.3477666689e-07  2.7716994684e-07
 7.0314491841e-03  2.7034921579e-07  3.3424676714e-07
 7.1322616271e-03  2.9594081764e-07 -2.5863277061e-07
 7.2575327832e-03  3.0265404029e-07 -7.5734374707e-08
 7.2520229506e-03  2.9300377941e-07 -2.8497885070e-08
 7.2672409736e-03  2.8496031159e-07  4.6074875018e-08
 7.2564097903e-03  2.8950342861e-07  1.2466758808e-07
 7.1284877560e-03  3.4981827193e-07 -1.3586596405e-07
 7.1631352130e-03  3.3752779298e-07  9.4367136644e-08
 7.1599971264e-03  3.4038533037e-07  1.5186128980e-07
 7.1334775473e-03  3.1937645133e-07  1.9285376215e-07
 7.1658960196e-03  3.2021120364e-07  1.5970392388e-07
 7.0580955044e-03  3.1530986595e-07  2.5109865233e-07
 7.0499138517e-03  3.9784253214e-07  1.3062824929e-07
 7.0516147213e-03 -3.5540191608e-07 -5.9336926506e-08
 7.0692170181e-03 -3.6734042649e-07 -2.3544106953e-08
 7.0583242117e-03 -3.6250327713e-07  6.5824894614e-08
 7.0423793986e-03 -3.4278964224e-07 -1.1760132145e-07
 7.0951253430e-03 -3.4204812787e-07 -1.0537627861e-07
 7.0483618023e-03 -3.2784916755e-07 -2.2865762055e-07
 7.0717460545e-03 -3.2946568358e-07 -2.1131948512e-07
 7.1456006530e-03 -2.9622983397e-07 -1.5714893042e-07
 7.1213157895e-03 -3.0690497999e-07 -1.2494904600e-07
 7.1519389653e-03 -3.0949189053e-07 -1.3638901152e-07
 7.1574529459e-03 -3.2838330628e-07 -5.2987760860e-08
 7.2023704877e-03 -3.1344794876e-07 -2.8423002365e-08
 7.1404534268e-03 -3.2218427236e-07  1.2189116526e-07
 7.0946793669e-03 -3.1564977566e-07  1.8444762907e-07
 7.1282999220e-03 -3.0176092071e-07 -2.0883794511e-07
 7.2315451046e-03 -2.7945699892e-07 -7.0021723730e-08
 7.2602241464e-03 -2.7022133239e-07 -9.4673264704e-08
 7.2489112983e-03 -2.6961696855e-07  1.0606894680e-07
 7.2418154417e-03 -2.5812631773e-07  1.0347498574e-07
 7.1699064732e-03 -2.9452624174e-07  1.6789512417e-07
 7.0578802395e-03 -2.3387092475e-07 -2.9673580363e-07
 7.0355785740e-03 -2.4497214082e-07 -3.0235502751e-07
 7.0343486651e-03 -2.4563739904e-07 -3.0077810995e-07
 7.0838704224e-03 -2.3885718582e-07 -2.9113502007e-07
 7.0656035684e-03 -2.6668888934e-07 -2.8965775802e-07
 7.2117718262e-03 -2.1805770208e-07 -2.1397273081e-07
 7.2088517177e-03 -2.4861473868e-07 -1.8682317946e-07
 7.2710321468e-03 -2.3515570014e-07 -1.3910085831e-07
 7.2791683265e-03 -2.5139259167e-07 -1.1087959453e-07
 7.3052088695e-03 -2.3697924257e-07 -9.9462053924e-08
 7.3310579306e-03 -2.2776884454e-07 -3.1922383424e-08
 7.2968183142e-03 -2.3227715672e-07  9.1942759200e-08
 7.3349384031e-03 -2.2058280472e-07  8.5183135022e-08
 7.2481075321e-03 -2.4492928149e-07  1.5111355521e-07
 7.2542917465e-03 -2.3410362243e-07  1.8500299330e-07
 7.1277473929e-03 -2.5746137599e-07  2.4971738666e-07
 7.1773963862e-03 -2.3751939962e-07  2.3711081889e-07
 7.1109076826e-03 -2.0386878629e-07 -2.9088468451e-07
 7.0919489339e-03 -1.9860590762e-07 -3.1060734814e-07
 7.1560179294e-03 -2.2273016773e-07 -2.7717092803e-07
 7.3227212692e-03 -2.1695581410e-07 -1.1851647525e-07
 7.3573184633e-03 -1.9656707704e-07 -7.7405639186e-08
 7.3695739615e-03 -1.8509453465e-07 -8.3203097138e-08
 7.3920271994e-03 -1.9282003798e-07 -2.0145040868e-08
 7.3970902415e-03 -1.7424379396e-07  3.3731762378e-08
 7.3824290799e-03 -1.9119718933e-07  6.2087546937e-08
 7.3491734049e-03 -2.0978514392e-07  6.9395625402e-08
 7.3426710042e-03 -1.8472260906e-07  1.4574384119e-07
 7.2746592102e-03 -1.8245658852e-07  1.9769411032e-07
 7.2735299102e-03 -1.8412597149e-07  2.0304524922e-07
 7.2120159106e-03 -1.8913951001e-07  2.4297675985e-07
 7.2218439821e-03 -2.0458485166e-07  2.4743129288e-07
 7.1470461706e-03 -2.0053879074e-07  2.7276371715e-07
 7.1884858675e-03 -1.8417197879e-07  2.6186214208e-07
 7.1280796136e-03 -2.0856822065e-07  3.0197882195e-07
 7.0731890889e-03 -2.0666520542e-07  3.1546995251e-07
 7.1269874365e-03 -1.7508527557e-07 -2.9879616936e-07
 7.2047330580e-03 -1.5552801363e-07 -2.7132735744e-07
 7.2067019165e-03 -1.8780031153e-07 -2.6086049171e-07
 7.3819490288e-03 -1.7364820356e-07 -1.0661335063e-07
 7.4177453042e-03 -1.3938883877e-07 -8.8100885647e-08
 7.3906964162e-03 -1.7311525644e-07 -9.3483229850e-08
 7.4365119236e-03 -1.3804893445e-07  2.6916492357e-08
 7.4131534085e-03 -1.6073636171e-07  7.7216310141e-08
 7.3776906277e-03 -1.6257754059e-07  1.2391564114e-07
 7.1748301207e-03 -1.5167814308e-07  2.8507274380e-07
 7.1140438954e-03 -1.5874527976e-07  3.0231714094e-07
 7.1301088600e-03 -1.6258753145e-07  3.0312956306e-07
 7.2208873653e-03 -1.3688378031e-07 -2.7883830882e-07
 7.2405501891e-03 -1.2034591841e-07 -2.7552360225e-07
 7.3123994249e-03 -1.0881834150e-07 -2.2136106652e-07
 7.2462900792e-03 -1.4082054958e-07 -2.5252969444e-07
 7.3013102744e-03 -1.1645095823e-07 -2.3856132778e-07
 7.3589044719e-03 -1.1968281762e-07 -1.8076992755e-07
 7.3516096060e-03 -1.1645537557e-07 -1.8926365608e-07
 7.3465079780e-03 -1.3447712197e-07 -1.8760578661e-07
 7.3764414726e-03 -1.2905960668e-07 -1.5358803669e-07
 7.4086078418e-03 -1.3569947678e-07 -1.1234352519e-07
 7.4607062834e-03 -1.0692024190e-07 -2.5233192812e-08
 7.4537145671e-03 -1.2385788631e-07 -3.8561986886e-08
 7.4671871257e-03 -1.0380067370e-07 -9.7264778345e-10
 7.4376175948e-03 -1.1087559981e-07  8.6925224662e-08
 7.4463817262e-03 -1.0941306834e-07  6.8479743550e-08
 7.4005878849e-03 -1.4447461322e-07  1.2649101445e-07
 7.3485489901e-03 -1.3635444096e-07  1.9212807795e-07
 7.1698415095e-03 -1.2221784692e-07  2.9998208486e-07
 7.1221203779e-03 -1.4951654320e-07  3.2436554964e-07
 7.0302418404e-03 -8.2080713186e-08 -3.4918907039e-07
 7.0431031649e-03 -8.6213826296e-08 -3.5352316285e-07
 7.1545720893e-03 -1.0232941555e-07 -3.0738352683e-07
 7.2025534618e-03 -9.6279932754e-08 -2.9007366469e-07
 7.1617711328e-03 -6.7567012395e-08 -3.2141650339e-07
 7.3489943406e-03 -9.3067477081e-08 -1.9515232189e-07
 7.4460070789e-03 -9.3992371764e-08 -9.2036897578e-08
 7.4708395073e-03 -6.9159319900e-08 -6.4105775534e-08
 7.4598933090e-03 -9.3340442863e-08 -7.3791773080e-08
 7.2964630400e-03 -9.3639567296e-08  2.3070469074e-07
 7.3098660199e-03 -7.6038200132e-08  2.2850022870e-07
 7.2470158309e-03 -1.0449983257e-07  2.7131225789e-07
 7.1094262677e-03 -8.9304823479e-08  3.1929756225e-07
 7.1442497008e-03 -4.5155731389e-08 -3.2608678295e-07
 7.1914698246e-03 -3.4177709147e-08 -3.0350715639e-07
 7.2471881589e-03 -2.1563327255e-08 -2.8461044407e-07
 7.2755799591e-03 -5.4205125442e-08 -2.6102274472e-07
 7.3979292126e-03 -2.1148626079e-08 -1.8218505360e-07
 7.4502559008e-03 -2.8819731571e-08 -1.2056058460e-07
 7.4496907468e-03 -3.8458403536e-08 -1.2368257416e-07
 7.4585330793e-03 -2.7089944256e-08 -1.1313200470e-07
 7.4121297267e-03 -3.4854895791e-08  1.6201223598e-07
 7.4349010739e-03 -2.6648646661e-08  1.4181399518e-07
 7.3208730499e-03 -4.9556133303e-08  2.2791272788e-07
 7.2011080838e-03 -2.5428249433e-08  3.0877574302e-07
 7.1532557840e-03 -5.9736633647e-08  3.2473256892e-07
 7.0510766635e-03 -8.1209632031e-09 -3.6130918977e-07
 7.3161952918e-03 -8.7460402805e-10 -2.4686941925e-07
 7.3572661753e-03 -1.0140176842e-08 -2.1861526784e-07
 7.4638366563e-03 -1.5059595841e-08 -1.0721127438e-07
 7.4838042514e-03 -1.5880944743e-08 -6.6663523854e-08
 7.4977875688e-03 -4.4892805801e-09 -7.9241018332e-09
 7.4732885884e-03 -6.6187193733e-09  9.2080120473e-08
 7.1897953171e-03 -7.1911223562e-09  3.1918207459e-07
 7.2114813073e-03  2.3170073848e-08 -2.8508137426e-07
 7.3288381440e-03  5.2424260480e-08 -2.2436440622e-07
 7.3347623156e-03  4.7370346562e-08 -2.2384137607e-07
 7.4612231895e-03  3.2032035510e-08 -1.1055239647e-07
 7.4736038274e-03  5.5516563162e-08 -7.7687504532e-08
 7.4805122976e-03  5.2914380220e-08 -5.8927449164e-08
 7.4870943282e-03  5.7987933731e-08 -1.8127876546e-08
 7.4840411575e-03  3.3538101327e-08  5.9927736403e-08
 7.4892150518e-03  2.7578103050e-08  4.8305601746e-08
 7.4807350900e-03  2.6742018508e-08  7.2627393659e-08
 7.4315592185e-03  4.9340583424e-08  1.4450377659e-07
 7.3254030851e-03  5.7623441573e-08  2.2177578462e-07
 7.3024755452e-03  5.0714228042e-08  2.4371867021e-07
 7.3046411812e-03  4.1024712392e-08  2.4590446362e-07
 7.2608155733e-03  3.5460729146e-08  2.6922827764e-07
 7.1974569285e-03  2.5379875340e-08  3.0504086291e-07
 7.0550723005e-03  4.5075207442e-08  3.5135652708e-07
 7.0975192643e-03  9.3218879778e-08 -3.2800389097e-07
 7.3269622913e-03  7.2385461374e-08 -2.3130811448e-07
 7.3176699927e-03  7.1477570405e-08 -2.4153099866e-07
 7.4255456236e-03  9.7181675537e-08 -1.1894573901e-07
 7.4761109518e-03  8.3296708974e-08 -2.5777449855e-08
 7.4603339952e-03  6.5880263447e-08  9.0418089169e-08
 7.4446639274e-03  8.8662839418e-08  1.0082883856e-07
 7.4373487544e-03  9.6988000642e-08  1.0695691316e-07
 7.4102559764e-03  9.2845583378e-08  1.5057752005e-07
 7.4074291252e-03  8.9675790829e-08  1.5645592444e-07
 7.3963236364e-03  1.0185543943e-07  1.6328342407e-07
 7.3667839641e-03  9.3934934427e-08  1.9401761346e-07
 7.1253303540e-03  7.9505522519e-08  3.1873742090e-07
 7.0713636784e-03  8.6942434176e-08  3.4734056008e-07
 7.0773477800e-03  7.2982570833e-08  3.5793024799e-07
 7.0593838627e-03  7.6799237399e-08  3.3674891186e-07
 7.0808061985e-03  1.1790524637e-07 -3.2514550335e-07
 7.0549629757e-03  1.3235104145e-07 -3.4637257034e-07
 7.1557195121e-03  1.2651757137e-07 -3.1662968470e-07
 7.2215338577e-03  1.3376383596e-07 -2.6372603470e-07
 7.2891332849e-03  1.4062096099e-07 -2.3193396965e-07
 7.3284831786e-03  1.1542598289e-07 -2.1182816113e-07
 7.3346674637e-03  1.3935584931e-07 -2.0355041203e-07
 7.4366569669e-03  1.2855003062e-07 -6.2692670066e-08
 7.4678449919e-03  1.0595563730e-07 -6.0653776928e-09
 7.4637360298e-03  1.0048529482e-07  3.6942254443e-08
 7.4587989391e-03  1.1094469322e-07  3.5531274034e-08
 7.4259301511e-03  1.0915426035e-07  1.1923086517e-07
 7.3189811764e-03  1.0645714940e-07  2.1127247521e-07
 7.2948394949e-03  1.0712748621e-07  2.2769635470e-07
 7.2903885868e-03  1.2675723142e-07  2.2865015288e-07
 7.1287875549e-03  1.0615422817e-07  3.0760185162e-07
 7.1145511701e-03  1.0831894901e-07  3.2783913479e-07